    1C
    1UUSER                                                              
    1UDATE              08.may.2021                                     
    1UTIME              15:02:09                                        
    1UHOST                                                              
    1UPGM               CalculiX                                        
    1UVERSION           Version 2.12                             
    1UCOMPILETIME       Tue, Apr 04, 2017  8:36:16 PM                    
    1UDIR                                                               
    1UDBN                                                               
    1UMAT    1STEEL                                                     
    2C                            20                                     1
 -1         1 0.00000E+00 0.00000E+00 1.00000E+01
 -1         2 0.00000E+00 0.00000E+00 0.00000E+00
 -1         3 0.00000E+00 1.00000E+01 1.00000E+01
 -1         4 0.00000E+00 1.00000E+01 0.00000E+00
 -1         5 4.00000E+01 0.00000E+00 1.00000E+01
 -1         6 4.00000E+01 0.00000E+00 0.00000E+00
 -1         7 4.00000E+01 1.00000E+01 1.00000E+01
 -1         8 4.00000E+01 1.00000E+01 0.00000E+00
 -1         9 1.00000E+01 0.00000E+00 0.00000E+00
 -1        10 2.00000E+01 0.00000E+00 0.00000E+00
 -1        11 3.00000E+01 0.00000E+00 0.00000E+00
 -1        12 1.00000E+01 0.00000E+00 1.00000E+01
 -1        13 2.00000E+01 0.00000E+00 1.00000E+01
 -1        14 3.00000E+01 0.00000E+00 1.00000E+01
 -1        15 1.00000E+01 1.00000E+01 0.00000E+00
 -1        16 2.00000E+01 1.00000E+01 0.00000E+00
 -1        17 3.00000E+01 1.00000E+01 0.00000E+00
 -1        18 1.00000E+01 1.00000E+01 1.00000E+01
 -1        19 2.00000E+01 1.00000E+01 1.00000E+01
 -1        20 3.00000E+01 1.00000E+01 1.00000E+01
 -3
    3C                             4                                     1
 -1         1    1    0    1
 -2         1         2         4         3        12         9        15        18
 -1         2    1    0    1
 -2        12         9        15        18        13        10        16        19
 -1         3    1    0    1
 -2        13        10        16        19        14        11        17        20
 -1         4    1    0    1
 -2        14        11        17        20         5         6         8         7
 -3
    1PSTEP                         1           1           1          
  100CL  101 1.000000000          20                     0    1           1
 -4  DISP        4    1
 -5  D1          1    2    1    0
 -5  D2          1    2    2    0
 -5  D3          1    2    3    0
 -5  ALL         1    2    0    0    1ALL
 -1         1 0.00000E+00 0.00000E+00 0.00000E+00
 -1         2 0.00000E+00 0.00000E+00 0.00000E+00
 -1         3 0.00000E+00 0.00000E+00 0.00000E+00
 -1         4 0.00000E+00 0.00000E+00 0.00000E+00
 -1         5-5.84053E-05-3.23685E-04 4.05465E-07
 -1         6-5.84053E-05-3.23685E-04-4.05465E-07
 -1         7 5.84053E-05-3.23685E-04-4.05465E-07
 -1         8 5.84053E-05-3.23685E-04 4.05465E-07
 -1         9-2.46662E-05-2.96186E-05-4.66530E-06
 -1        10-4.34985E-05-1.02736E-04-2.30775E-06
 -1        11-5.45705E-05-2.05757E-04-1.19408E-06
 -1        12-2.46662E-05-2.96186E-05 4.66530E-06
 -1        13-4.34985E-05-1.02736E-04 2.30775E-06
 -1        14-5.45705E-05-2.05757E-04 1.19408E-06
 -1        15 2.46662E-05-2.96186E-05 4.66530E-06
 -1        16 4.34985E-05-1.02736E-04 2.30775E-06
 -1        17 5.45705E-05-2.05757E-04 1.19408E-06
 -1        18 2.46662E-05-2.96186E-05-4.66530E-06
 -1        19 4.34985E-05-1.02736E-04-2.30775E-06
 -1        20 5.45705E-05-2.05757E-04-1.19408E-06
 -3
 9999
